   11   11    1    1
  0.1640342E+02  0.3714476E-09  0.3713863E-09  0.1309055E-08  0.5000000E-15
  1.000000000000000E-004
  CAR 
 BSCCO2201                               
     77    120     56
 
  0.0000000E+00  0.0000000E+00  0.0000000E+00  0.8333333E-02
      1        -29.226439   1.000000
      2        -29.197492   1.000000
      3        -14.617117   1.000000
      4        -14.455501   1.000000
      5        -14.391937   1.000000
      6        -13.102730   1.000000
      7        -13.088313   1.000000
      8        -12.648907   1.000000
      9        -11.177099   1.000000
     10        -11.176137   1.000000
     11        -11.116906   1.000000
     12        -11.116352   1.000000
     13        -11.096608   1.000000
     14        -10.586427   1.000000
     15         -5.784917   1.000000
     16         -5.407147   1.000000
     17         -0.830188   1.000000
     18         -0.351434   1.000000
     19         -0.348392   1.000000
     20         -0.228207   1.000000
     21         -0.215526   1.000000
     22         -0.213083   1.000000
     23          0.751911   1.000000
     24          0.786088   1.000000
     25          0.833680   1.000000
     26          1.328747   1.000000
     27          1.467521   1.000000
     28          1.685621   1.000000
     29          1.689058   1.000000
     30          1.900666   1.000000
     31          1.984870   1.000000
     32          1.992830   1.000000
     33          2.110327   1.000000
     34          2.117075   1.000000
     35          2.473042   1.000000
     36          2.535961   1.000000
     37          2.649545   1.000000
     38          3.072901   1.000000
     39          3.082501   1.000000
     40          5.853994   0.000000
     41          7.134675   0.000000
     42          7.405793   0.000000
     43          8.240542   0.000000
     44          8.566455   0.000000
     45          8.966049   0.000000
     46          9.474294   0.000000
     47          9.614299   0.000000
     48          9.632127   0.000000
     49         10.063312   0.000000
     50         11.120104   0.000000
     51         11.456565   0.000000
     52         11.977769   0.000000
     53         12.000097   0.000000
     54         12.135903   0.000000
     55         12.229663   0.000000
     56         12.338439   0.000000
 
  0.1282051E-01  0.0000000E+00  0.0000000E+00  0.8333333E-02
      1        -29.226375   1.000000
      2        -29.197436   1.000000
      3        -14.616294   1.000000
      4        -14.454914   1.000000
      5        -14.391514   1.000000
      6        -13.103275   1.000000
      7        -13.088861   1.000000
      8        -12.649868   1.000000
      9        -11.176772   1.000000
     10        -11.175348   1.000000
     11        -11.119999   1.000000
     12        -11.116494   1.000000
     13        -11.093294   1.000000
     14        -10.586785   1.000000
     15         -5.786343   1.000000
     16         -5.408757   1.000000
     17         -0.829464   1.000000
     18         -0.350714   1.000000
     19         -0.347511   1.000000
     20         -0.227849   1.000000
     21         -0.217581   1.000000
     22         -0.213595   1.000000
     23          0.751473   1.000000
     24          0.784377   1.000000
     25          0.834577   1.000000
     26          1.327134   1.000000
     27          1.466284   1.000000
     28          1.678059   1.000000
     29          1.687400   1.000000
     30          1.910986   1.000000
     31          1.985329   1.000000
     32          1.992906   1.000000
     33          2.109869   1.000000
     34          2.116609   1.000000
     35          2.473827   1.000000
     36          2.532257   1.000000
     37          2.647814   1.000000
     38          3.075778   1.000000
     39          3.087771   1.000000
     40          5.855149   0.000000
     41          7.133031   0.000000
     42          7.403590   0.000000
     43          8.240041   0.000000
     44          8.568112   0.000000
     45          8.968366   0.000000
     46          9.470640   0.000000
     47          9.601031   0.000000
     48          9.630083   0.000000
     49         10.074850   0.000000
     50         11.120614   0.000000
     51         11.457166   0.000000
     52         11.941475   0.000000
     53         11.994157   0.000000
     54         12.132199   0.000000
     55         12.236772   0.000000
     56         12.484996   0.000000
 
  0.2564103E-01  0.0000000E+00  0.0000000E+00  0.8333333E-02
      1        -29.226187   1.000000
      2        -29.197267   1.000000
      3        -14.613827   1.000000
      4        -14.453166   1.000000
      5        -14.390274   1.000000
      6        -13.104906   1.000000
      7        -13.090503   1.000000
      8        -12.652729   1.000000
      9        -11.176348   1.000000
     10        -11.172445   1.000000
     11        -11.126910   1.000000
     12        -11.116168   1.000000
     13        -11.086467   1.000000
     14        -10.587855   1.000000
     15         -5.790627   1.000000
     16         -5.413559   1.000000
     17         -0.827298   1.000000
     18         -0.348616   1.000000
     19         -0.344916   1.000000
     20         -0.231585   1.000000
     21         -0.220861   1.000000
     22         -0.213058   1.000000
     23          0.749635   1.000000
     24          0.780080   1.000000
     25          0.836980   1.000000
     26          1.322323   1.000000
     27          1.462594   1.000000
     28          1.655796   1.000000
     29          1.686259   1.000000
     30          1.936738   1.000000
     31          1.987365   1.000000
     32          1.993200   1.000000
     33          2.108547   1.000000
     34          2.115331   1.000000
     35          2.476090   1.000000
     36          2.521214   1.000000
     37          2.643583   1.000000
     38          3.080278   1.000000
     39          3.106697   1.000000
     40          5.858588   0.000000
     41          7.127345   0.000000
     42          7.397723   0.000000
     43          8.238505   0.000000
     44          8.573105   0.000000
     45          8.975226   0.000000
     46          9.455535   0.000000
     47          9.569301   0.000000
     48          9.624758   0.000000
     49         10.105176   0.000000
     50         11.124026   0.000000
     51         11.474281   0.000000
     52         11.895567   0.000000
     53         11.978756   0.000000
     54         12.126911   0.000000
     55         12.252183   0.000000
     56         12.386918   0.000000
 
  0.3846154E-01  0.0000000E+00  0.0000000E+00  0.8333333E-02
      1        -29.225874   1.000000
      2        -29.196986   1.000000
      3        -14.609709   1.000000
      4        -14.450278   1.000000
      5        -14.388186   1.000000
      6        -13.107633   1.000000
      7        -13.093224   1.000000
      8        -12.657442   1.000000
      9        -11.175825   1.000000
     10        -11.167514   1.000000
     11        -11.134770   1.000000
     12        -11.115599   1.000000
     13        -11.078748   1.000000
     14        -10.589623   1.000000
     15         -5.797796   1.000000
     16         -5.421452   1.000000
     17         -0.823734   1.000000
     18         -0.345350   1.000000
     19         -0.340777   1.000000
     20         -0.246720   1.000000
     21         -0.217323   1.000000
     22         -0.211708   1.000000
     23          0.744663   1.000000
     24          0.775537   1.000000
     25          0.840378   1.000000
     26          1.314398   1.000000
     27          1.456514   1.000000
     28          1.626804   1.000000
     29          1.684692   1.000000
     30          1.964370   1.000000
     31          1.992714   1.000000
     32          1.997661   1.000000
     33          2.106757   1.000000
     34          2.113550   1.000000
     35          2.479054   1.000000
     36          2.503984   1.000000
     37          2.638778   1.000000
     38          3.085746   1.000000
     39          3.137535   1.000000
     40          5.864245   0.000000
     41          7.115413   0.000000
     42          7.390391   0.000000
     43          8.235807   0.000000
     44          8.581494   0.000000
     45          8.986378   0.000000
     46          9.416673   0.000000
     47          9.540481   0.000000
     48          9.616577   0.000000
     49         10.146217   0.000000
     50         11.129601   0.000000
     51         11.480500   0.000000
     52         11.849410   0.000000
     53         11.956480   0.000000
     54         12.121850   0.000000
     55         12.239238   0.000000
     56         12.453721   0.000000
 
  0.5128205E-01  0.0000000E+00  0.0000000E+00  0.8333333E-02
      1        -29.225441   1.000000
      2        -29.196596   1.000000
      3        -14.603969   1.000000
      4        -14.446273   1.000000
      5        -14.385259   1.000000
      6        -13.111470   1.000000
      7        -13.097021   1.000000
      8        -12.663913   1.000000
      9        -11.175145   1.000000
     10        -11.160795   1.000000
     11        -11.142733   1.000000
     12        -11.114788   1.000000
     13        -11.070893   1.000000
     14        -10.592075   1.000000
     15         -5.807899   1.000000
     16         -5.432274   1.000000
     17         -0.818845   1.000000
     18         -0.341893   1.000000
     19         -0.335327   1.000000
     20         -0.267797   1.000000
     21         -0.211513   1.000000
     22         -0.209037   1.000000
     23          0.734544   1.000000
     24          0.773240   1.000000
     25          0.844408   1.000000
     26          1.303492   1.000000
     27          1.448136   1.000000
     28          1.595764   1.000000
     29          1.682538   1.000000
     30          1.975347   1.000000
     31          1.993709   1.000000
     32          2.025353   1.000000
     33          2.106259   1.000000
     34          2.111833   1.000000
     35          2.472214   1.000000
     36          2.492352   1.000000
     37          2.634728   1.000000
     38          3.092866   1.000000
     39          3.176817   1.000000
     40          5.871996   0.000000
     41          7.094001   0.000000
     42          7.384871   0.000000
     43          8.231657   0.000000
     44          8.593377   0.000000
     45          9.001167   0.000000
     46          9.350570   0.000000
     47          9.525928   0.000000
     48          9.606270   0.000000
     49         10.191867   0.000000
     50         11.136660   0.000000
     51         11.473695   0.000000
     52         11.804425   0.000000
     53         11.928744   0.000000
     54         12.113302   0.000000
     55         12.242812   0.000000
     56         12.382626   0.000000
 
  0.6410256E-01  0.0000000E+00  0.0000000E+00  0.8333333E-02
      1        -29.224888   1.000000
      2        -29.196099   1.000000
      3        -14.596625   1.000000
      4        -14.441179   1.000000
      5        -14.381485   1.000000
      6        -13.116439   1.000000
      7        -13.101854   1.000000
      8        -12.671999   1.000000
      9        -11.174331   1.000000
     10        -11.153771   1.000000
     11        -11.149172   1.000000
     12        -11.113711   1.000000
     13        -11.063172   1.000000
     14        -10.595187   1.000000
     15         -5.820994   1.000000
     16         -5.445801   1.000000
     17         -0.812747   1.000000
     18         -0.342756   1.000000
     19         -0.328646   1.000000
     20         -0.288966   1.000000
     21         -0.208052   1.000000
     22         -0.201364   1.000000
     23          0.719252   1.000000
     24          0.773563   1.000000
     25          0.848923   1.000000
     26          1.289777   1.000000
     27          1.437586   1.000000
     28          1.564984   1.000000
     29          1.679772   1.000000
     30          1.977405   1.000000
     31          1.994568   1.000000
     32          2.053309   1.000000
     33          2.107327   1.000000
     34          2.118205   1.000000
     35          2.445759   1.000000
     36          2.498103   1.000000
     37          2.631753   1.000000
     38          3.101741   1.000000
     39          3.221998   1.000000
     40          5.881660   0.000000
     41          7.060050   0.000000
     42          7.384371   0.000000
     43          8.225487   0.000000
     44          8.608859   0.000000
     45          9.017773   0.000000
     46          9.270130   0.000000
     47          9.518588   0.000000
     48          9.595563   0.000000
     49         10.238839   0.000000
     50         11.146714   0.000000
     51         11.455609   0.000000
     52         11.764275   0.000000
     53         11.899212   0.000000
     54         12.105226   0.000000
     55         12.341821   0.000000
     56         12.478266   0.000000
 
  0.7692308E-01  0.0000000E+00  0.0000000E+00  0.8333333E-02
      1        -29.224221   1.000000
      2        -29.195497   1.000000
      3        -14.587703   1.000000
      4        -14.435059   1.000000
      5        -14.376855   1.000000
      6        -13.122560   1.000000
      7        -13.107707   1.000000
      8        -12.681570   1.000000
      9        -11.173489   1.000000
     10        -11.158894   1.000000
     11        -11.141612   1.000000
     12        -11.112299   1.000000
     13        -11.055723   1.000000
     14        -10.598925   1.000000
     15         -5.837162   1.000000
     16         -5.461763   1.000000
     17         -0.805669   1.000000
     18         -0.360124   1.000000
     19         -0.320448   1.000000
     20         -0.297726   1.000000
     21         -0.205002   1.000000
     22         -0.190809   1.000000
     23          0.699912   1.000000
     24          0.775663   1.000000
     25          0.853884   1.000000
     26          1.273464   1.000000
     27          1.424997   1.000000
     28          1.535566   1.000000
     29          1.676383   1.000000
     30          1.977224   1.000000
     31          1.995699   1.000000
     32          2.061954   1.000000
     33          2.104932   1.000000
     34          2.148414   1.000000
     35          2.414506   1.000000
     36          2.508543   1.000000
     37          2.629629   1.000000
     38          3.112326   1.000000
     39          3.271187   1.000000
     40          5.892976   0.000000
     41          7.012124   0.000000
     42          7.390616   0.000000
     43          8.216369   0.000000
     44          8.627983   0.000000
     45          9.029369   0.000000
     46          9.191155   0.000000
     47          9.510668   0.000000
     48          9.587780   0.000000
     49         10.285677   0.000000
     50         11.170460   0.000000
     51         11.430007   0.000000
     52         11.732309   0.000000
     53         11.869129   0.000000
     54         12.094505   0.000000
     55         12.280594   0.000000
     56         12.423878   0.000000
 
  0.8974359E-01  0.0000000E+00  0.0000000E+00  0.8333333E-02
      1        -29.223442   1.000000
      2        -29.194794   1.000000
      3        -14.577225   1.000000
      4        -14.427970   1.000000
      5        -14.371350   1.000000
      6        -13.129826   1.000000
      7        -13.114532   1.000000
      8        -12.692458   1.000000
      9        -11.173173   1.000000
     10        -11.165333   1.000000
     11        -11.130646   1.000000
     12        -11.110320   1.000000
     13        -11.048632   1.000000
     14        -10.603249   1.000000
     15         -5.856470   1.000000
     16         -5.479847   1.000000
     17         -0.797962   1.000000
     18         -0.394663   1.000000
     19         -0.310630   1.000000
     20         -0.292828   1.000000
     21         -0.201461   1.000000
     22         -0.178356   1.000000
     23          0.677451   1.000000
     24          0.778939   1.000000
     25          0.859298   1.000000
     26          1.254786   1.000000
     27          1.410526   1.000000
     28          1.508026   1.000000
     29          1.672366   1.000000
     30          1.975865   1.000000
     31          1.997108   1.000000
     32          2.058311   1.000000
     33          2.101771   1.000000
     34          2.190231   1.000000
     35          2.381696   1.000000
     36          2.522440   1.000000
     37          2.628007   1.000000
     38          3.124519   1.000000
     39          3.322982   1.000000
     40          5.905583   0.000000
     41          6.950790   0.000000
     42          7.403466   0.000000
     43          8.202938   0.000000
     44          8.650558   0.000000
     45          9.009488   0.000000
     46          9.145758   0.000000
     47          9.496822   0.000000
     48          9.586887   0.000000
     49         10.332654   0.000000
     50         11.263011   0.000000
     51         11.403573   0.000000
     52         11.721673   0.000000
     53         11.838694   0.000000
     54         12.083103   0.000000
     55         12.398711   0.000000
     56         12.560186   0.000000
 
  0.1025641E+00  0.0000000E+00  0.0000000E+00  0.8333333E-02
      1        -29.222554   1.000000
      2        -29.193996   1.000000
      3        -14.565239   1.000000
      4        -14.419983   1.000000
      5        -14.364946   1.000000
      6        -13.138259   1.000000
      7        -13.122288   1.000000
      8        -12.704501   1.000000
      9        -11.176059   1.000000
     10        -11.168120   1.000000
     11        -11.119743   1.000000
     12        -11.106721   1.000000
     13        -11.041966   1.000000
     14        -10.608116   1.000000
     15         -5.878973   1.000000
     16         -5.499718   1.000000
     17         -0.790275   1.000000
     18         -0.437136   1.000000
     19         -0.299323   1.000000
     20         -0.282430   1.000000
     21         -0.197340   1.000000
     22         -0.164181   1.000000
     23          0.652528   1.000000
     24          0.783084   1.000000
     25          0.865161   1.000000
     26          1.234000   1.000000
     27          1.394336   1.000000
     28          1.482557   1.000000
     29          1.667721   1.000000
     30          1.973533   1.000000
     31          1.998651   1.000000
     32          2.050567   1.000000
     33          2.098227   1.000000
     34          2.233546   1.000000
     35          2.348649   1.000000
     36          2.540401   1.000000
     37          2.626579   1.000000
     38          3.138205   1.000000
     39          3.376320   1.000000
     40          5.918964   0.000000
     41          6.877917   0.000000
     42          7.421576   0.000000
     43          8.183371   0.000000
     44          8.675653   0.000000
     45          8.943162   0.000000
     46          9.153896   0.000000
     47          9.475479   0.000000
     48          9.594212   0.000000
     49         10.377457   0.000000
     50         11.285241   0.000000
     51         11.598937   0.000000
     52         11.821485   0.000000
     53         11.945861   0.000000
     54         12.191652   0.000000
     55         12.449066   0.000000
     56         12.635199   0.000000
 
  0.1153846E+00  0.0000000E+00  0.0000000E+00  0.8333333E-02
      1        -29.221566   1.000000
      2        -29.193107   1.000000
      3        -14.551780   1.000000
      4        -14.411200   1.000000
      5        -14.357606   1.000000
      6        -13.147835   1.000000
      7        -13.130943   1.000000
      8        -12.717540   1.000000
      9        -11.181864   1.000000
     10        -11.167403   1.000000
     11        -11.112562   1.000000
     12        -11.098122   1.000000
     13        -11.035769   1.000000
     14        -10.613471   1.000000
     15         -5.904703   1.000000
     16         -5.521029   1.000000
     17         -0.783820   1.000000
     18         -0.482897   1.000000
     19         -0.286697   1.000000
     20         -0.269527   1.000000
     21         -0.192579   1.000000
     22         -0.148402   1.000000
     23          0.625719   1.000000
     24          0.787935   1.000000
     25          0.871448   1.000000
     26          1.211376   1.000000
     27          1.376614   1.000000
     28          1.459165   1.000000
     29          1.662449   1.000000
     30          1.970287   1.000000
     31          2.000020   1.000000
     32          2.041383   1.000000
     33          2.094387   1.000000
     34          2.273941   1.000000
     35          2.316624   1.000000
     36          2.563385   1.000000
     37          2.625116   1.000000
     38          3.153241   1.000000
     39          3.430385   1.000000
     40          5.932360   0.000000
     41          6.795945   0.000000
     42          7.443036   0.000000
     43          8.155594   0.000000
     44          8.699480   0.000000
     45          8.868790   0.000000
     46          9.185014   0.000000
     47          9.447999   0.000000
     48          9.608512   0.000000
     49         10.422466   0.000000
     50         11.201622   0.000000
     51         11.352290   0.000000
     52         11.686321   0.000000
     53         11.820530   0.000000
     54         12.189439   0.000000
     55         12.482309   0.000000
     56         12.721156   0.000000
 
  0.1282051E+00  0.0000000E+00  0.0000000E+00  0.8333333E-02
      1        -29.220485   1.000000
      2        -29.192134   1.000000
      3        -14.536919   1.000000
      4        -14.401733   1.000000
      5        -14.349275   1.000000
      6        -13.158523   1.000000
      7        -13.140451   1.000000
      8        -12.731421   1.000000
      9        -11.187855   1.000000
     10        -11.165855   1.000000
     11        -11.109096   1.000000
     12        -11.084763   1.000000
     13        -11.030075   1.000000
     14        -10.619259   1.000000
     15         -5.933653   1.000000
     16         -5.543443   1.000000
     17         -0.780972   1.000000
     18         -0.528204   1.000000
     19         -0.272924   1.000000
     20         -0.255077   1.000000
     21         -0.187100   1.000000
     22         -0.131172   1.000000
     23          0.597595   1.000000
     24          0.793382   1.000000
     25          0.878087   1.000000
     26          1.187201   1.000000
     27          1.357579   1.000000
     28          1.437742   1.000000
     29          1.656558   1.000000
     30          1.966148   1.000000
     31          2.000527   1.000000
     32          2.032176   1.000000
     33          2.090319   1.000000
     34          2.282282   1.000000
     35          2.313179   1.000000
     36          2.592200   1.000000
     37          2.623582   1.000000
     38          3.169477   1.000000
     39          3.484531   1.000000
     40          5.944600   0.000000
     41          6.707666   0.000000
     42          7.465463   0.000000
     43          8.117856   0.000000
     44          8.705382   0.000000
     45          8.820694   0.000000
     46          9.225018   0.000000
     47          9.415992   0.000000
     48          9.628428   0.000000
     49         10.467029   0.000000
     50         11.212814   0.000000
     51         11.346688   0.000000
     52         11.694587   0.000000
     53         11.922205   0.000000
     54         12.279108   0.000000
     55         12.467621   0.000000
     56         12.735478   0.000000
 
  0.1410256E+00  0.0000000E+00  0.0000000E+00  0.8333333E-02
      1        -29.219316   1.000000
      2        -29.191082   1.000000
      3        -14.520713   1.000000
      4        -14.391703   1.000000
      5        -14.339892   1.000000
      6        -13.170281   1.000000
      7        -13.150770   1.000000
      8        -12.746011   1.000000
      9        -11.193470   1.000000
     10        -11.164000   1.000000
     11        -11.106577   1.000000
     12        -11.069650   1.000000
     13        -11.024888   1.000000
     14        -10.625419   1.000000
     15         -5.965769   1.000000
     16         -5.566646   1.000000
     17         -0.786210   1.000000
     18         -0.567740   1.000000
     19         -0.258217   1.000000
     20         -0.239554   1.000000
     21         -0.180790   1.000000
     22         -0.112648   1.000000
     23          0.568746   1.000000
     24          0.799327   1.000000
     25          0.884956   1.000000
     26          1.161786   1.000000
     27          1.337494   1.000000
     28          1.418107   1.000000
     29          1.650064   1.000000
     30          1.961126   1.000000
     31          1.998712   1.000000
     32          2.024691   1.000000
     33          2.086097   1.000000
     34          2.253149   1.000000
     35          2.343030   1.000000
     36          2.618949   1.000000
     37          2.630210   1.000000
     38          3.186756   1.000000
     39          3.538237   0.999999
     40          5.953785   0.000000
     41          6.616426   0.000000
     42          7.485565   0.000000
     43          8.070109   0.000000
     44          8.671160   0.000000
     45          8.827263   0.000000
     46          9.270157   0.000000
     47          9.380774   0.000000
     48          9.653273   0.000000
     49         10.511128   0.000000
     50         11.221081   0.000000
     51         11.464304   0.000000
     52         11.659643   0.000000
     53         11.858637   0.000000
     54         12.258550   0.000000
     55         12.515267   0.000000
     56         12.660731   0.000000
 
  0.1538462E+00  0.0000000E+00  0.0000000E+00  0.8333333E-02
      1        -29.218067   1.000000
      2        -29.189959   1.000000
      3        -14.503261   1.000000
      4        -14.381239   1.000000
      5        -14.329375   1.000000
      6        -13.183020   1.000000
      7        -13.161846   1.000000
      8        -12.761205   1.000000
      9        -11.198567   1.000000
     10        -11.161951   1.000000
     11        -11.104237   1.000000
     12        -11.053834   1.000000
     13        -11.020157   1.000000
     14        -10.631884   1.000000
     15         -6.000931   1.000000
     16         -5.590366   1.000000
     17         -0.805867   1.000000
     18         -0.594516   1.000000
     19         -0.242842   1.000000
     20         -0.223311   1.000000
     21         -0.173471   1.000000
     22         -0.093029   1.000000
     23          0.539780   1.000000
     24          0.805675   1.000000
     25          0.891848   1.000000
     26          1.135480   1.000000
     27          1.316680   1.000000
     28          1.400059   1.000000
     29          1.642991   1.000000
     30          1.955232   1.000000
     31          1.992874   1.000000
     32          2.020690   1.000000
     33          2.081813   1.000000
     34          2.225008   1.000000
     35          2.367942   1.000000
     36          2.617687   1.000000
     37          2.670506   1.000000
     38          3.204922   1.000000
     39          3.591078   0.999994
     40          5.956728   0.000000
     41          6.526680   0.000000
     42          7.498224   0.000000
     43          8.015991   0.000000
     44          8.624823   0.000000
     45          8.862482   0.000000
     46          9.315225   0.000000
     47          9.346993   0.000000
     48          9.682351   0.000000
     49         10.554535   0.000000
     50         11.225036   0.000000
     51         11.414448   0.000000
     52         11.665712   0.000000
     53         11.923560   0.000000
     54         12.240999   0.000000
     55         12.511131   0.000000
     56         12.652178   0.000000
 
  0.1666667E+00  0.0000000E+00  0.0000000E+00  0.8333333E-02
      1        -29.216747   1.000000
      2        -29.188771   1.000000
      3        -14.484686   1.000000
      4        -14.370458   1.000000
      5        -14.317664   1.000000
      6        -13.196671   1.000000
      7        -13.173632   1.000000
      8        -12.776910   1.000000
      9        -11.203084   1.000000
     10        -11.159752   1.000000
     11        -11.101898   1.000000
     12        -11.037974   1.000000
     13        -11.015616   1.000000
     14        -10.638587   1.000000
     15         -6.038959   1.000000
     16         -5.614375   1.000000
     17         -0.843245   1.000000
     18         -0.604653   1.000000
     19         -0.227153   1.000000
     20         -0.206728   1.000000
     21         -0.164843   1.000000
     22         -0.072544   1.000000
     23          0.511343   1.000000
     24          0.812297   1.000000
     25          0.898438   1.000000
     26          1.108698   1.000000
     27          1.295514   1.000000
     28          1.383397   1.000000
     29          1.635371   1.000000
     30          1.948471   1.000000
     31          1.983637   1.000000
     32          2.019494   1.000000
     33          2.077582   1.000000
     34          2.198923   1.000000
     35          2.387840   1.000000
     36          2.614463   1.000000
     37          2.717309   1.000000
     38          3.223812   1.000000
     39          3.642707   0.999969
     40          5.948181   0.000000
     41          6.444763   0.000000
     42          7.495385   0.000000
     43          7.964338   0.000000
     44          8.584736   0.000000
     45          8.907004   0.000000
     46          9.297406   0.000000
     47          9.377305   0.000000
     48          9.715421   0.000000
     49         10.596760   0.000000
     50         11.203642   0.000000
     51         11.245541   0.000000
     52         11.626201   0.000000
     53         11.958782   0.000000